! Touchstone(R) file created by SIwave 2020 R2
! Touchstone(R) file created on Tue Apr 20 08:41:09 2021

! Port[1] = CS_PHASE_A_3_1x3_PIN_PHASE_A
! Port[2] = CS_PHASE_A_3_ACS770LCB-050B-PFF-T_U1
! Port[3] = CS_PHASE_B_3_1x3_PIN_PHASE_B
! Port[4] = CS_PHASE_B_3_ACS770LCB-050B-PFF-T_U3
! Port[5] = CS_PHASE_C_3_1x3_PIN_PHASE_C
! Port[6] = CS_PHASE_C_3_ACS770LCB-050B-PFF-T_U4


! S-parameters
# Hz S MA R 50.000000
0.000000000000e+00 3.123990147784e-04 0.000000000000e+00 9.996876009353e-01 0.000000000000e+00 5.773181590046e-05 0.000000000000e+00 5.773181293459e-05 1.800000000000e+02
                   4.832655669611e-07 1.800000000000e+02 4.832658296276e-07 0.000000000000e+00
                   9.996876009353e-01 0.000000000000e+00 3.123990146179e-04 0.000000000000e+00 5.773181305424e-05 1.800000000000e+02 5.773181579073e-05 0.000000000000e+00
                   4.832658084348e-07 0.000000000000e+00 4.832655832973e-07 1.800000000000e+02
                   5.773181590046e-05 0.000000000000e+00 5.773181305424e-05 1.800000000000e+02 4.117725949108e-04 0.000000000000e+00 9.995882235847e-01 0.000000000000e+00
                   1.157954178695e-04 0.000000000000e+00 1.157957408636e-04 1.800000000000e+02
                   5.773181293459e-05 1.800000000000e+02 5.773181579073e-05 0.000000000000e+00 9.995882235847e-01 0.000000000000e+00 4.117725943790e-04 0.000000000000e+00
                   1.157957401539e-04 1.800000000000e+02 1.157954172508e-04 0.000000000000e+00
                   4.832655669611e-07 1.800000000000e+02 4.832658084348e-07 0.000000000000e+00 1.157954178695e-04 0.000000000000e+00 1.157957401539e-04 1.800000000000e+02
                   2.314562120253e-04 0.000000000000e+00 9.997685437104e-01 0.000000000000e+00
                   4.832658296276e-07 0.000000000000e+00 4.832655832973e-07 1.800000000000e+02 1.157957408636e-04 1.800000000000e+02 1.157954172508e-04 0.000000000000e+00
                   9.997685437104e-01 0.000000000000e+00 2.314562118890e-04 0.000000000000e+00
1.000000000000e+00 3.317077234326e-04 4.872736033453e-02 9.996682857750e-01 -1.708847678842e-05 5.777606165612e-05 -4.245404060374e-02 5.776765152711e-05 1.799615295903e+02
                   4.728369414969e-07 -1.764501598752e+02 4.698862455634e-07 3.758801299764e+00
                   9.996682857750e-01 -1.708847678842e-05 3.317077234109e-04 4.872796894173e-02 5.776765147738e-05 1.799615294832e+02 5.777605230760e-05 -4.245711087527e-02
                   4.698864807012e-07 3.758799945755e+00 4.728385401880e-07 -1.764503810236e+02
                   5.777606165612e-05 -4.245404060374e-02 5.776765147738e-05 1.799615294832e+02 4.117722006628e-04 9.586217104851e-04 9.995882171342e-01 -8.083035411889e-07
                   1.157791241476e-04 1.237485200671e-02 1.157752464967e-04 -1.799851621725e+02
                   5.776765152711e-05 1.799615295903e+02 5.777605230760e-05 -4.245711087527e-02 9.995882171342e-01 -8.083035411889e-07 4.117722003711e-04 9.585179606407e-04
                   1.157752485972e-04 -1.799851626896e+02 1.157791231817e-04 1.237513789558e-02
                   4.728369414969e-07 -1.764501598752e+02 4.698864807012e-07 3.758799945755e+00 1.157791241476e-04 1.237485200671e-02 1.157752485972e-04 -1.799851626896e+02
                   2.321830595508e-04 4.415314102314e-02 9.997678155987e-01 -1.067068201700e-05
                   4.698862455634e-07 3.758801299764e+00 4.728385401880e-07 -1.764503810236e+02 1.157752464967e-04 -1.799851621725e+02 1.157791231817e-04 1.237513789558e-02
                   9.997678155987e-01 -1.067068201700e-05 2.321830594744e-04 4.415315642765e-02
1.148153621497e+00 3.317085849550e-04 4.259982408420e-02 9.996682845934e-01 -1.495288158345e-05 5.778108406288e-05 -4.206918058139e-02 5.777219988521e-05 1.799603966101e+02
                   4.700162489989e-07 -1.760843119279e+02 4.665445372748e-07 4.134457055018e+00
                   9.996682845934e-01 -1.495288158345e-05 3.317085849544e-04 4.260035237659e-02 5.777219980055e-05 1.799603964578e+02 5.778107557087e-05 -4.207322495354e-02
                   4.665448186925e-07 4.134461027044e+00 4.700181990812e-07 -1.760845353453e+02
                   5.778108406288e-05 -4.206918058139e-02 5.777219980055e-05 1.799603964578e+02 4.117727085765e-04 1.073987299854e-03 9.995882158876e-01 -9.093126933529e-07
                   1.157762279176e-04 1.313205801990e-02 1.157716170191e-04 -1.799846212018e+02
                   5.777219988521e-05 1.799603966101e+02 5.778107557087e-05 -4.207322495354e-02 9.995882158876e-01 -9.093126933529e-07 4.117727083595e-04 1.073869880224e-03
                   1.157716192715e-04 -1.799846215716e+02 1.157762268630e-04 1.313236310434e-02
                   4.700162489989e-07 -1.760843119279e+02 4.665448186925e-07 4.134461027044e+00 1.157762279176e-04 1.313205801990e-02 1.157716192715e-04 -1.799846215716e+02
                   2.321933165584e-04 3.902594539122e-02 9.997678048723e-01 -9.455628210646e-06
                   4.665445372748e-07 4.134457055018e+00 4.700181990812e-07 -1.760845353453e+02 1.157716170191e-04 -1.799846212018e+02 1.157762268630e-04 1.313236310434e-02
                   9.997678048723e-01 -9.455628210646e-06 2.321933164910e-04 3.902595811253e-02
1.258925411794e+00 3.317090713462e-04 3.897321307794e-02 9.996682839997e-01 -1.369000875882e-05 5.778438730776e-05 -4.159297506537e-02 5.777527568919e-05 1.799597781954e+02
                   4.677944736633e-07 -1.758425421296e+02 4.640108643293e-07 4.379483748265e+00
                   9.996682839997e-01 -1.369000875882e-05 3.317090713576e-04 3.897369350514e-02 5.777527557983e-05 1.799597780048e+02 5.778437947250e-05 -4.159751776961e-02
                   4.640111753503e-07 4.379492439498e+00 4.677966756095e-07 -1.758427618725e+02
                   5.778438730776e-05 -4.159297506537e-02 5.777527557983e-05 1.799597780048e+02 4.117731966933e-04 1.154169048170e-03 9.995882149629e-01 -9.805474207705e-07
                   1.157741839732e-04 1.358740834574e-02 1.157691019197e-04 -1.799843695406e+02
                   5.777527568919e-05 1.799597781954e+02 5.778437947250e-05 -4.159751776961e-02 9.995882149629e-01 -9.805474207705e-07 4.117731965388e-04 1.154041850660e-03
                   1.157691042247e-04 -1.799843698066e+02 1.157741828491e-04 1.358772301621e-02
                   4.677944736633e-07 -1.758425421296e+02 4.640111753503e-07 4.379492439498e+00 1.157741839732e-04 1.358740834574e-02 1.157691042247e-04 -1.799843698066e+02
                   2.321988259413e-04 3.588185897234e-02 9.997677990378e-01 -8.709633930095e-06
                   4.640108643293e-07 4.379483748265e+00 4.677966756095e-07 -1.758427618725e+02 1.157691019197e-04 -1.799843695406e+02 1.157741828491e-04 1.358772301621e-02
                   9.997677990378e-01 -8.709633930095e-06 2.321988258774e-04 3.588186989583e-02
1.380384264603e+00 3.317095095780e-04 3.567710262164e-02 9.996682835396e-01 -1.254321193438e-05 5.778764671806e-05 -4.096564940403e-02 5.777838253201e-05 1.799592752800e+02
                   4.652875919053e-07 -1.756079399711e+02 4.612326789198e-07 4.614066233897e+00
                   9.996682835396e-01 -1.254321193438e-05 3.317095095986e-04 3.567753925065e-02 5.777838239868e-05 1.799592750436e+02 5.778763957266e-05 -4.097056769860e-02
                   4.612330187299e-07 4.614080652762e+00 4.652900537341e-07 -1.756081509006e+02
                   5.778764671806e-05 -4.096564940403e-02 5.777838239868e-05 1.799592750436e+02 4.117738203092e-04 1.235933456036e-03 9.995882139527e-01 -1.054303284938e-06
                   1.157720670462e-04 1.399923361519e-02 1.157665417164e-04 -1.799842068812e+02
                   5.777838253201e-05 1.799592752800e+02 5.778763957266e-05 -4.097056769860e-02 9.995882139527e-01 -1.054303284938e-06 4.117738202282e-04 1.235796015773e-03
                   1.157665440369e-04 -1.799842070438e+02 1.157720658468e-04 1.399955421163e-02
                   4.652875919053e-07 -1.756079399711e+02 4.612330187299e-07 4.614080652762e+00 1.157720670462e-04 1.399923361519e-02 1.157665440369e-04 -1.799842070438e+02
                   2.322034507134e-04 3.295569154340e-02 9.997677940904e-01 -8.015146477006e-06
                   4.612326789198e-07 4.614066233897e+00 4.652900537341e-07 -1.756081509006e+02 1.157665417164e-04 -1.799842068812e+02 1.157720658468e-04 1.399955421163e-02
                   9.997677940904e-01 -8.015146477006e-06 2.322034506533e-04 3.295570067314e-02
1.513561248436e+00 3.317099139828e-04 3.268359395139e-02 9.996682831967e-01 -1.150278908356e-05 5.779086012522e-05 -4.020461537925e-02 5.778151929687e-05 1.799588981631e+02
                   4.624954146358e-07 -1.753859151193e+02 4.582187356474e-07 4.832356455803e+00
                   9.996682831967e-01 -1.150278908356e-05 3.317099140117e-04 3.268399047979e-02 5.778151914019e-05 1.799588978725e+02 5.779085367557e-05 -4.020979317735e-02
                   4.582191004417e-07 4.832377661318e+00 4.624981353644e-07 -1.753861113190e+02
                   5.779086012522e-05 -4.020461537925e-02 5.778151914019e-05 1.799588978725e+02 4.117745911649e-04 1.318100464832e-03 9.995882128467e-01 -1.129869529773e-06
                   1.157698915871e-04 1.436533360369e-02 1.157639615281e-04 -1.799841311564e+02
                   5.778151929687e-05 1.799588981631e+02 5.779085367557e-05 -4.020979317735e-02 9.995882128467e-01 -1.129869529773e-06 4.117745911720e-04 1.317952416388e-03
                   1.157639638273e-04 -1.799841312204e+02 1.157698903057e-04 1.436565542712e-02
                   4.624954146358e-07 -1.753859151193e+02 4.582191004417e-07 4.832377661318e+00 1.157698915871e-04 1.436533360369e-02 1.157639638273e-04 -1.799841312204e+02
                   2.322073256506e-04 3.024225109026e-02 9.997677899071e-01 -7.371330090373e-06
                   4.582187356474e-07 4.832356455803e+00 4.624981353644e-07 -1.753861113190e+02 1.157639615281e-04 -1.799841311564e+02 1.157698903057e-04 1.436565542712e-02
                   9.997677899071e-01 -7.371330090373e-06 2.322073255931e-04 3.024225843492e-02
1.659586907438e+00 3.317102954013e-04 2.996733746983e-02 9.996682829566e-01 -1.055993317810e-05 5.779402692119e-05 -3.932257496288e-02 5.778468441887e-05 1.799586619009e+02
                   4.594286473858e-07 -1.751823320724e+02 4.549869433189e-07 5.028238630893e+00
                   9.996682829566e-01 -1.055993317810e-05 3.317102954364e-04 2.996769725688e-02 5.778468424267e-05 1.799586615476e+02 5.779402115167e-05 -3.932790806507e-02
                   4.549873285900e-07 5.028267662706e+00 4.594316147698e-07 -1.751825070296e+02
                   5.779402692119e-05 -3.932257496288e-02 5.778468424267e-05 1.799586615476e+02 4.117755185160e-04 1.399219275400e-03 9.995882116344e-01 -1.206347416204e-06
                   1.157676705439e-04 1.468412932157e-02 1.157613833876e-04 -1.799841376911e+02
                   5.778468441887e-05 1.799586619009e+02 5.779402115167e-05 -3.932790806507e-02 9.995882116344e-01 -1.206347416204e-06 4.117755186274e-04 1.399060403599e-03
                   1.157613856343e-04 -1.799841376645e+02 1.157676691761e-04 1.468444660157e-02
                   4.594286473858e-07 -1.751823320724e+02 4.549873285900e-07 5.028267662706e+00 1.157676705439e-04 1.468412932157e-02 1.157613856343e-04 -1.799841376645e+02
                   2.322105696592e-04 2.773386061241e-02 9.997677863807e-01 -6.776683048134e-06
                   4.549869433189e-07 5.028238630893e+00 4.594316147698e-07 -1.751825070296e+02 1.157613833876e-04 -1.799841376911e+02 1.157676691761e-04 1.468444660157e-02
                   9.997677863807e-01 -6.776683048134e-06 2.322105696044e-04 2.773386618084e-02
1.819700858610e+00 3.317106617064e-04 2.750532223557e-02 9.996682828059e-01 -9.706659356520e-06 5.779714568710e-05 -3.832724296404e-02 5.778787367656e-05 1.799585854143e+02
                   4.561099394683e-07 -1.750032417892e+02 4.515651854677e-07 5.195665613111e+00
                   9.996682828059e-01 -9.706659356520e-06 3.317106617476e-04 2.750564833002e-02 5.778787348395e-05 1.799585849895e+02 5.779714056325e-05 -3.833264226383e-02
                   4.515655849662e-07 5.195703449365e+00 4.561131297193e-07 -1.750033887107e+02
                   5.779714568710e-05 -3.832724296404e-02 5.778787348395e-05 1.799585849895e+02 4.117766083122e-04 1.477583610064e-03 9.995882103056e-01 -1.282657146276e-06
                   1.157654149897e-04 1.495415903000e-02 1.157588254363e-04 -1.799842200304e+02
                   5.778787367656e-05 1.799585854143e+02 5.779714056325e-05 -3.833264226383e-02 9.995882103056e-01 -1.282657146276e-06 4.117766085466e-04 1.477413916191e-03
                   1.157588276050e-04 -1.799842199240e+02 1.157654135332e-04 1.495446497882e-02
                   4.561099394683e-07 -1.750032417892e+02 4.515655849662e-07 5.195703449365e+00 1.157654149897e-04 1.495415903000e-02 1.157588276050e-04 -1.799842199240e+02
                   2.322132864592e-04 2.542117098495e-02 9.997677834184e-01 -6.229245950163e-06
                   4.515651854677e-07 5.195665613111e+00 4.561131297193e-07 -1.750033887107e+02 1.157588254363e-04 -1.799842200304e+02 1.157654135332e-04 1.495446497882e-02
                   9.997677834184e-01 -6.229245950163e-06 2.322132864069e-04 2.542117478312e-02
1.995262314969e+00 3.317110182298e-04 2.527668419419e-02 9.996682827324e-01 -8.935738609480e-06 5.780021212964e-05 -3.722198480593e-02 5.779107834837e-05 1.799586896978e+02
                   4.525740470662e-07 -1.748545344609e+02 4.479913346374e-07 5.329055021776e+00
                   9.996682827324e-01 -8.935738609480e-06 3.317110182759e-04 2.527697936010e-02 5.779107814568e-05 1.799586891931e+02 5.780020760722e-05 -3.722737768460e-02
                   4.479917415504e-07 5.329102515382e+00 4.525774228213e-07 -1.748546466775e+02
                   5.780021212964e-05 -3.722198480593e-02 5.779107814568e-05 1.799586891931e+02 4.117778623710e-04 1.551278425152e-03 9.995882088517e-01 -1.357565183170e-06
                   1.157631343060e-04 1.517360832108e-02 1.157563018449e-04 -1.799843708521e+02
                   5.779107834837e-05 1.799586896978e+02 5.780020760722e-05 -3.722737768460e-02 9.995882088517e-01 -1.357565183170e-06 4.117778627501e-04 1.551098212038e-03
                   1.157563039148e-04 -1.799843706784e+02 1.157631327602e-04 1.517389530310e-02
                   4.525740470662e-07 -1.748545344609e+02 4.479917415504e-07 5.329102515382e+00 1.157631343060e-04 1.517360832108e-02 1.157563039148e-04 -1.799843706784e+02
                   2.322155655323e-04 2.329380175814e-02 9.997677809403e-01 -5.726767614126e-06
                   4.479913346374e-07 5.329055021776e+00 4.525774228213e-07 -1.748546466775e+02 1.157563018449e-04 -1.799843708521e+02 1.157631327602e-04 1.517389530310e-02
                   9.997677809403e-01 -5.726767614126e-06 2.322155654817e-04 2.329380378654e-02
2.187761623950e+00 3.317113681074e-04 2.326253178996e-02 9.996682827246e-01 -8.240637530567e-06 5.780321767782e-05 -3.600717371205e-02 5.779428407776e-05 1.799589953578e+02
                   4.488669324790e-07 -1.747415393716e+02 4.443122562124e-07 5.423706383668e+00
                   9.996682827246e-01 -8.240637530567e-06 3.317113681572e-04 2.326279852980e-02 5.779428387162e-05 1.799589947656e+02 5.780321370439e-05 -3.601250401395e-02
                   4.443126621717e-07 5.423764233411e+00 4.488704430183e-07 -1.747416108426e+02
                   5.780321767782e-05 -3.600717371205e-02 5.779428387162e-05 1.799589947656e+02 4.117792776741e-04 1.618265232077e-03 9.995882072666e-01 -1.429736606479e-06
                   1.157608368550e-04 1.533999743619e-02 1.157538234242e-04 -1.799845827962e+02
                   5.779428407776e-05 1.799589953578e+02 5.780321370439e-05 -3.601250401395e-02 9.995882072666e-01 -1.429736606479e-06 4.117792782237e-04 1.618075211820e-03
                   1.157538253836e-04 -1.799845825680e+02 1.157608352241e-04 1.534025727443e-02
                   4.488669324790e-07 -1.747415393716e+02 4.443126621717e-07 5.423764233411e+00 1.157608368550e-04 1.533999743619e-02 1.157538253836e-04 -1.799845825680e+02
                   2.322174832388e-04 2.134083535481e-02 9.997677788779e-01 -5.266834359553e-06
                   4.443122562124e-07 5.423706383668e+00 4.488704430183e-07 -1.747416108426e+02 1.157538234242e-04 -1.799845827962e+02 1.157608352241e-04 1.534025727443e-02
                   9.997677788779e-01 -5.266834359553e-06 2.322174831892e-04 2.134083560621e-02
2.290867652768e+00 3.317115410065e-04 2.233048418135e-02 9.996682827418e-01 -7.919654332551e-06 5.780469360818e-05 -3.535841900630e-02 5.779588123596e-05 1.799592293541e+02
                   4.469661270650e-07 -1.746998442194e+02 4.424498803893e-07 5.455374353443e+00
                   9.996682827418e-01 -7.919654332551e-06 3.317115410590e-04 2.233073757055e-02 5.779588103093e-05 1.799592287156e+02 5.780468988871e-05 -3.536370184511e-02
                   4.424502820185e-07 5.455437591380e+00 4.469696820426e-07 -1.746998933955e+02
                   5.780469360818e-05 -3.535841900630e-02 5.779588103093e-05 1.799592287156e+02 4.117800434103e-04 1.648602892177e-03 9.995882064237e-01 -1.464370245915e-06
                   1.157596844161e-04 1.540231673319e-02 1.157526038870e-04 -1.799847095349e+02
                   5.779588123596e-05 1.799592293541e+02 5.780468988871e-05 -3.536370184511e-02 9.995882064237e-01 -1.464370245915e-06 4.117800440551e-04 1.648408399166e-03
                   1.157526057878e-04 -1.799847092843e+02 1.157596827455e-04 1.540255988356e-02
                   4.469661270650e-07 -1.746998442194e+02 4.424502820185e-07 5.455437591380e+00 1.157596844161e-04 1.540231673319e-02 1.157526057878e-04 -1.799847092843e+02
                   2.322183271470e-04 2.042628845181e-02 9.997677779836e-01 -5.052048242651e-06
                   4.424498803893e-07 5.455374353443e+00 4.469696820426e-07 -1.746998933955e+02 1.157526038870e-04 -1.799847095349e+02 1.157596827455e-04 1.540255988356e-02
                   9.997677779836e-01 -5.052048242651e-06 2.322183270984e-04 2.042628780905e-02
2.398832919019e+00 3.317117125807e-04 2.144578767738e-02 9.996682827715e-01 -7.615463705233e-06 5.780614891621e-05 -3.468196967320e-02 5.779747065572e-05 1.799595198388e+02
                   4.450437781960e-07 -1.746686140047e+02 4.405817707697e-07 5.476188496406e+00
                   9.996682827715e-01 -7.615463705233e-06 3.317117126345e-04 2.144602825295e-02 5.779747045337e-05 1.799595191525e+02 5.780614543632e-05 -3.468719668295e-02
                   4.405821665716e-07 5.476257215984e+00 4.450473607980e-07 -1.746686398571e+02
                   5.780614891621e-05 -3.468196967320e-02 5.779747045337e-05 1.799595191525e+02 4.117808459281e-04 1.676509666952e-03 9.995882055474e-01 -1.497814701226e-06
                   1.157585309623e-04 1.545012132372e-02 1.157513987658e-04 -1.799848490750e+02
                   5.779747065572e-05 1.799595198388e+02 5.780614543632e-05 -3.468719668295e-02 9.995882055474e-01 -1.497814701226e-06 4.117808466766e-04 1.676311095044e-03
                   1.157514006082e-04 -1.799848488051e+02 1.157585292541e-04 1.545034575063e-02
                   4.450437781960e-07 -1.746686140047e+02 4.405821665716e-07 5.476257215984e+00 1.157585309623e-04 1.545012132372e-02 1.157514006082e-04 -1.799848488051e+02
                   2.322191040097e-04 1.955118987816e-02 9.997677771718e-01 -4.846968659193e-06
                   4.405817707697e-07 5.476188496406e+00 4.450473607980e-07 -1.746686398571e+02 1.157513987658e-04 -1.799848490750e+02 1.157585292541e-04 1.545034575063e-02
                   9.997677771718e-01 -4.846968659193e-06 2.322191039617e-04 1.955118833580e-02
2.511886431510e+00 3.317118827362e-04 2.060656755988e-02 9.996682828121e-01 -7.327421152526e-06 5.780758123278e-05 -3.397783594862e-02 5.779904902692e-05 1.799598680644e+02
                   4.431077381078e-07 -1.746481808741e+02 4.387152541037e-07 5.485968228019e+00
                   9.996682828121e-01 -7.327421152526e-06 3.317118827913e-04 2.060679583163e-02 5.779904883031e-05 1.799598673290e+02 5.780757797931e-05 -3.398300043510e-02
                   4.387156424458e-07 5.486042499774e+00 4.431113314772e-07 -1.746481826111e+02
                   5.780758123278e-05 -3.397783594862e-02 5.779904883031e-05 1.799598673290e+02 4.117816833686e-04 1.701759431608e-03 9.995882046379e-01 -1.529914224147e-06
                   1.157573776961e-04 1.548293627706e-02 1.157502090171e-04 -1.799850007087e+02
                   5.779904902692e-05 1.799598680644e+02 5.780757797931e-05 -3.398300043510e-02 9.995882046379e-01 -1.529914224147e-06 4.117816842281e-04 1.701557268414e-03
                   1.157502107997e-04 -1.799850004226e+02 1.157573759534e-04 1.548314002456e-02
                   4.431077381078e-07 -1.746481808741e+02 4.387156424458e-07 5.486042499774e+00 1.157573776961e-04 1.548293627706e-02 1.157502107997e-04 -1.799850004226e+02
                   2.322198202183e-04 1.871417371378e-02 9.997677764360e-01 -4.651288012996e-06
                   4.387152541037e-07 5.485968228019e+00 4.431113314772e-07 -1.746481826111e+02 1.157502090171e-04 -1.799850007087e+02 1.157573759534e-04 1.548314002456e-02
                   9.997677764360e-01 -4.651288012996e-06 2.322198201713e-04 1.871417126493e-02
2.630267991895e+00 3.317120512994e-04 1.981104533892e-02 9.996682828626e-01 -7.054916337510e-06 5.780898798586e-05 -3.324617146342e-02 5.780061282879e-05 1.799602747844e+02
                   4.411660240367e-07 -1.746387749850e+02 4.368576828227e-07 5.484643470067e+00
                   9.996682828626e-01 -7.054916337510e-06 3.317120513550e-04 1.981126179067e-02 5.780061264055e-05 1.799602739988e+02 5.780898494574e-05 -3.325126828466e-02
                   4.368580617023e-07 5.484723346124e+00 4.411696095826e-07 -1.746387520536e+02
                   5.780898798586e-05 -3.324617146342e-02 5.780061264055e-05 1.799602739988e+02 4.117825535647e-04 1.724149035522e-03 9.995882036960e-01 -1.560525914228e-06
                   1.157562259354e-04 1.550028670666e-02 1.157490356258e-04 -1.799851637861e+02
                   5.780061282879e-05 1.799602747844e+02 5.780898494574e-05 -3.325126828466e-02 9.995882036960e-01 -1.560525914228e-06 4.117825545436e-04 1.723943874606e-03
                   1.157490373493e-04 -1.799851634865e+02 1.157562241625e-04 1.550046793988e-02
                   4.411660240367e-07 -1.746387749850e+02 4.368580617023e-07 5.484723346124e+00 1.157562259354e-04 1.550028670666e-02 1.157490373493e-04 -1.799851634865e+02
                   2.322204815677e-04 1.791389369024e-02 9.997677757707e-01 -4.464702798460e-06
                   4.368576828227e-07 5.484643470067e+00 4.411696095826e-07 -1.746387520536e+02 1.157490356258e-04 -1.799851637861e+02 1.157562241625e-04 1.550046793988e-02
                   9.997677757707e-01 -4.464702798460e-06 2.322204815206e-04 1.791389032662e-02
2.754228703338e+00 3.317122180228e-04 1.905753501108e-02 9.996682829216e-01 -6.797371800150e-06 5.781036645082e-05 -3.248731187572e-02 5.780215839229e-05 1.799607402095e+02
                   4.392266991270e-07 -1.746405190697e+02 4.350163199181e-07 5.472256436604e+00
                   9.996682829216e-01 -6.797371800150e-06 3.317122180799e-04 1.905774010153e-02 5.780215821340e-05 1.799607393728e+02 5.781036360907e-05 -3.249233732047e-02
                   4.350166868869e-07 5.472341953855e+00 4.392302572586e-07 -1.746404711804e+02
                   5.781036645082e-05 -3.248731187572e-02 5.780215821340e-05 1.799607393728e+02 4.117834540888e-04 1.743504938346e-03 9.995882027226e-01 -1.589523827939e-06
                   1.157550771302e-04 1.550171932787e-02 1.157478796475e-04 -1.799853377084e+02
                   5.780215839229e-05 1.799607402095e+02 5.781036360907e-05 -3.249233732047e-02 9.995882027226e-01 -1.589523827939e-06 4.117834551968e-04 1.743297492434e-03
                   1.157478813120e-04 -1.799853373980e+02 1.157550753299e-04 1.550187637551e-02
                   4.392266991270e-07 -1.746405190697e+02 4.350166868869e-07 5.472341953855e+00 1.157550771302e-04 1.550171932787e-02 1.157478813120e-04 -1.799853373980e+02
                   2.322210932986e-04 1.714902779212e-02 9.997677751705e-01 -4.286914881775e-06
                   4.350163199181e-07 5.472256436604e+00 4.392302572586e-07 -1.746404711804e+02 1.157478796475e-04 -1.799853377084e+02 1.157550753299e-04 1.550187637551e-02
                   9.997677751705e-01 -4.286914881775e-06 2.322210932525e-04 1.714902350374e-02
2.884031503127e+00 3.317123826015e-04 1.834443950918e-02 9.996682829879e-01 -6.554241743130e-06 5.781171381808e-05 -3.170180339987e-02 5.780368197949e-05 1.799612639800e+02
                   4.372977460673e-07 -1.746534254115e+02 4.331982168157e-07 5.448960899919e+00
                   9.996682829879e-01 -6.554241743130e-06 3.317123826590e-04 1.834463367308e-02 5.780368181264e-05 1.799612630915e+02 5.781171116300e-05 -3.170675506258e-02
                   4.331985709344e-07 5.449052058094e+00 4.373012593061e-07 -1.746533525863e+02
                   5.781171381808e-05 -3.170180339987e-02 5.780368181264e-05 1.799612630915e+02 4.117843822886e-04 1.759689871673e-03 9.995882017190e-01 -1.616803064524e-06
                   1.157539328705e-04 1.548682618969e-02 1.157467422303e-04 -1.799855219183e+02
                   5.780368197949e-05 1.799612639800e+02 5.781171116300e-05 -3.170675506258e-02 9.995882017190e-01 -1.616803064524e-06 4.117843835333e-04 1.759480986829e-03
                   1.157467438384e-04 -1.799855215996e+02 1.157539310492e-04 1.548695758492e-02
                   4.372977460673e-07 -1.746534254115e+02 4.331985709344e-07 5.449052058094e+00 1.157539328705e-04 1.548682618969e-02 1.157467438384e-04 -1.799855215996e+02
                   2.322216601274e-04 1.641828203379e-02 9.997677746302e-01 -4.117632568908e-06
                   4.331982168157e-07 5.448960899919e+00 4.373012593061e-07 -1.746533525863e+02 1.157467422303e-04 -1.799855219183e+02 1.157539310492e-04 1.548695758492e-02
                   9.997677746302e-01 -4.117632568908e-06 2.322216600816e-04 1.641827680916e-02
3.019951720402e+00 3.317125446750e-04 1.767024733816e-02 9.996682830603e-01 -6.325010883430e-06 5.781302726019e-05 -3.089042037720e-02 5.780517986216e-05 1.799618451565e+02
                   4.353869514013e-07 -1.746773955421e+02 4.314101045192e-07 5.415018759306e+00
                   9.996682830603e-01 -6.325010883430e-06 3.317125447335e-04 1.767043098704e-02 5.780517970952e-05 1.799618442156e+02 5.781302477902e-05 -3.089529704142e-02
                   4.314104434027e-07 5.415115561490e+00 4.353904002030e-07 -1.746772980658e+02
                   5.781302726019e-05 -3.089042037720e-02 5.780517970952e-05 1.799618442156e+02 4.117853353366e-04 1.772609326005e-03 9.995882006870e-01 -1.642283691525e-06
                   1.157527948868e-04 1.545526943260e-02 1.157456246327e-04 -1.799857158873e+02
                   5.780517986216e-05 1.799618451565e+02 5.781302477902e-05 -3.089529704142e-02 9.995882006870e-01 -1.642283691525e-06 4.117853367287e-04 1.772399996669e-03
                   1.157456261847e-04 -1.799857155625e+02 1.157527930486e-04 1.545537395320e-02
                   4.353869514013e-07 -1.746773955421e+02 4.314104434027e-07 5.415115561490e+00 1.157527948868e-04 1.545526943260e-02 1.157456261847e-04 -1.799857155625e+02
                   2.322221862847e-04 1.572039351408e-02 9.997677741453e-01 -3.956571486919e-06
                   4.314101045192e-07 5.415018759306e+00 4.353904002030e-07 -1.746772980658e+02 1.157456246327e-04 -1.799857158873e+02 1.157527930486e-04 1.545537395320e-02
                   9.997677741453e-01 -3.956571486919e-06 2.322221862387e-04 1.572038734000e-02
3.162277660168e+00 3.317127038452e-04 1.703352938847e-02 9.996682831376e-01 -6.109193367382e-06 5.781430399933e-05 -3.005417161782e-02 5.780664839505e-05 1.799624822283e+02
                   4.335017918533e-07 -1.747122225330e+02 4.296582887564e-07 5.370794211273e+00
                   9.996682831376e-01 -6.109193367382e-06 3.317127039051e-04 1.703370291160e-02 5.780664825850e-05 1.799624812347e+02 5.781430168021e-05 -3.005897314076e-02
                   4.296586117376e-07 5.370896627682e+00 4.335051587471e-07 -1.747121009995e+02
                   5.781430399933e-05 -3.005417161782e-02 5.780664825850e-05 1.799624812347e+02 4.117863103022e-04 1.782217655728e-03 9.995881996285e-01 -1.665914369115e-06
                   1.157516650446e-04 1.540680583804e-02 1.157445282312e-04 -1.799859191022e+02
                   5.780664839505e-05 1.799624822283e+02 5.781430168021e-05 -3.005897314076e-02 9.995881996285e-01 -1.665914369115e-06 4.117863118509e-04 1.782009040556e-03
                   1.157445297293e-04 -1.799859187735e+02 1.157516631953e-04 1.540688254150e-02
                   4.335017918533e-07 -1.747122225330e+02 4.296586117376e-07 5.370896627682e+00 1.157516650446e-04 1.540680583804e-02 1.157445297293e-04 -1.799859187735e+02
                   2.322226755503e-04 1.505413284363e-02 9.997677737112e-01 -3.803455302559e-06
                   4.296582887564e-07 5.370794211273e+00 4.335051587471e-07 -1.747121009995e+02 1.157445282312e-04 -1.799859191022e+02 1.157516631953e-04 1.540688254150e-02
                   9.997677737112e-01 -3.803455302559e-06 2.322226755048e-04 1.505412570506e-02
3.311311214826e+00 3.317128596813e-04 1.643293592233e-02 9.996682832188e-01 -5.906331747063e-06 5.781554138115e-05 -2.919429582199e-02 5.780808409433e-05 1.799631731399e+02
                   4.316493332477e-07 -1.747575958798e+02 4.279485598339e-07 5.316745662808e+00
                   9.996682832188e-01 -5.906331747063e-06 3.317128597410e-04 1.643309968765e-02 5.780808397575e-05 1.799631720932e+02 5.781553921256e-05 -2.919902302671e-02
                   4.279488663465e-07 5.316853655241e+00 4.316526015241e-07 -1.747574511639e+02